  TITLE="OUTPUT"
  VARIABLES= X, Y, U, V, P,VOR
ZONE T="ZONE-ONE"     I= 61   J= 59   F=POINT
        -.500         .000         .013         .028         .551
         .809
        -.497         .052         .024         .084         .525
        2.419
        -.489         .104         .046         .134         .474
        3.962
        -.476         .155         .076         .176         .402
        5.402
        -.457         .203         .112         .207         .310
        6.694
        -.433         .250         .151         .226         .206
        7.806
        -.405         .294         .189         .232         .094
        8.702
        -.372         .335         .223         .225        -.020
        9.359
        -.335         .372         .249         .206        -.132
        9.751
        -.294         .405         .266         .179        -.233
        9.870
        -.250         .433         .271         .145        -.324
        9.711
        -.203         .457         .265         .109        -.396
        9.287
        -.155         .476         .247         .074        -.453
        8.620
        -.104         .489         .220         .042        -.489
        7.750
        -.052         .497         .187         .016        -.511
        6.729
         .000         .500         .150        -.003        -.516
        5.621
         .052         .497         .114        -.014        -.511
        4.495
         .104         .489         .080        -.019        -.495
        3.413
         .155         .476         .051        -.018        -.476
        2.429
         .203         .457         .028        -.013        -.454
        1.575
         .250         .433         .010        -.006        -.432
         .871
         .294         .405        -.002         .001        -.410
         .314
         .335         .372        -.009         .009        -.391
        -.104
         .372         .335        -.013         .015        -.373
        -.397
         .405         .294        -.013         .019        -.357
        -.578
         .433         .250        -.012         .022        -.343
        -.656
         .457         .203        -.009         .021        -.330
        -.637
         .476         .155        -.006         .018        -.319
        -.530
         .489         .104        -.004         .012        -.312
        -.348
         .497         .052        -.002         .004        -.308
        -.116
         .500         .000        -.002        -.005        -.308
         .133
         .497        -.052        -.004        -.013        -.312
         .364
         .489        -.104        -.007        -.018        -.320
         .545
         .476        -.155        -.010        -.022        -.330
         .651
         .457        -.203        -.012        -.022        -.343
         .669
         .433        -.250        -.014        -.020        -.357
         .589
         .405        -.294        -.013        -.015        -.373
         .407
         .372        -.335        -.009        -.009        -.391
         .113
         .335        -.372        -.002        -.001        -.411
        -.305
         .294        -.405         .010         .006        -.432
        -.862
         .250        -.433         .027         .013        -.454
       -1.568
         .203        -.457         .051         .018        -.477
       -2.423
         .155        -.476         .080         .019        -.496
       -3.408
         .104        -.489         .114         .014        -.512
       -4.493
         .052        -.497         .150         .003        -.517
       -5.620
         .000        -.500         .187        -.016        -.512
       -6.731
        -.052        -.497         .220        -.042        -.491
       -7.753
        -.104        -.489         .247        -.074        -.454
       -8.625
        -.155        -.476         .265        -.109        -.398
       -9.294
        -.203        -.457         .271        -.146        -.325
       -9.719
        -.250        -.433         .266        -.179        -.235
       -9.879
        -.294        -.405         .250        -.207        -.133
       -9.760
        -.335        -.372         .223        -.225        -.021
       -9.368
        -.372        -.335         .189        -.232         .092
       -8.713
        -.405        -.294         .151        -.226         .205
       -7.817
        -.433        -.250         .112        -.208         .309
       -6.704
        -.457        -.203         .076        -.177         .401
       -5.412
        -.476        -.155         .046        -.135         .474
       -3.972
        -.489        -.104         .024        -.084         .525
       -2.429
        -.497        -.052         .013        -.029         .551
        -.820
        -.500         .000         .013         .028         .551
         .000
        -.555         .000         .102         .051         .509
         .395
        -.552         .058         .121         .151         .485
        1.187
        -.543         .115         .159         .244         .438
        1.966
        -.528         .172         .211         .324         .370
        2.725
        -.507         .226         .276         .387         .284
        3.455
        -.481         .278         .347         .432         .187
        4.146
        -.449         .326         .421         .455         .082
        4.784
        -.413         .372         .490         .456        -.025
        5.357
        -.372         .413         .550         .437        -.130
        5.849
        -.326         .449         .596         .400        -.224
        6.241
        -.278         .481         .623         .347        -.309
        6.513
        -.226         .507         .628         .285        -.376
        6.645
        -.172         .528         .610         .218        -.429
        6.616
        -.115         .543         .571         .152        -.463
        6.411
        -.058         .552         .512         .091        -.483
        6.024
         .000         .555         .439         .041        -.487
        5.468
         .058         .552         .359         .005        -.483
        4.772
         .115         .543         .278        -.018        -.471
        3.986
         .172         .528         .202        -.027        -.454
        3.170
         .226         .507         .136        -.026        -.435
        2.383
         .278         .481         .082        -.017        -.417
        1.671
         .326         .449         .041        -.004        -.398
        1.065
         .372         .413         .012         .010        -.382
         .580
         .413         .372        -.007         .024        -.367
         .218
         .449         .326        -.017         .034        -.354
        -.029
         .481         .278        -.021         .040        -.342
        -.172
         .507         .226        -.021         .039        -.331
        -.228
         .528         .172        -.020         .033        -.323
        -.213
         .543         .115        -.018         .022        -.316
        -.146
         .552         .058        -.016         .007        -.313
        -.049
         .555         .000        -.016        -.009        -.313
         .060
         .552        -.058        -.018        -.023        -.317
         .157
         .543        -.115        -.020        -.035        -.323
         .223
         .528        -.172        -.022        -.040        -.332
         .238
         .507        -.226        -.021        -.040        -.342
         .182
         .481        -.278        -.017        -.035        -.354
         .038
         .449        -.326        -.007        -.024        -.367
        -.210
         .413        -.372         .011        -.011        -.382
        -.573
         .372        -.413         .040         .004        -.399
       -1.059
         .326        -.449         .081         .017        -.417
       -1.666
         .278        -.481         .135         .026        -.436
       -2.379
         .226        -.507         .202         .027        -.455
       -3.168
         .172        -.528         .278         .018        -.471
       -3.986
         .115        -.543         .359        -.005        -.484
       -4.773
         .058        -.552         .439        -.042        -.489
       -5.470
         .000        -.555         .512        -.091        -.484
       -6.028
        -.058        -.552         .571        -.152        -.464
       -6.415
        -.115        -.543         .610        -.218        -.430
       -6.621
        -.172        -.528         .628        -.285        -.378
       -6.650
        -.226        -.507         .623        -.348        -.310
       -6.519
        -.278        -.481         .596        -.400        -.226
       -6.246
        -.326        -.449         .551        -.438        -.131
       -5.854
        -.372        -.413         .491        -.457        -.026
       -5.362
        -.413        -.372         .421        -.455         .080
       -4.789
        -.449        -.326         .348        -.432         .186
       -4.151
        -.481        -.278         .276        -.388         .283
       -3.460
        -.507        -.226         .212        -.325         .369
       -2.730
        -.528        -.172         .159        -.245         .437
       -1.971
        -.543        -.115         .121        -.152         .485
       -1.192
        -.552        -.058         .102        -.052         .509
        -.400
        -.555         .000         .102         .051         .509
         .000
        -.613         .000         .206         .056         .495
         .173
        -.609         .064         .227         .167         .473
         .523
        -.599         .127         .267         .271         .431
         .876
        -.583         .189         .324         .362         .371
        1.235
        -.560         .249         .395         .438         .295
        1.602
        -.530         .306         .476         .495         .207
        1.976
        -.496         .360         .561         .530         .110
        2.359
        -.455         .410         .645         .544         .012
        2.749
        -.410         .455         .722         .535        -.087
        3.142
        -.360         .496         .787         .506        -.178
        3.532
        -.306         .530         .834         .459        -.261
        3.906
        -.249         .560         .859         .397        -.330
        4.250
        -.189         .583         .858         .326        -.386
        4.541
        -.127         .599         .830         .250        -.424
        4.747
        -.064         .609         .775         .175        -.449
        4.836
         .000         .613         .696         .107        -.458
        4.772
         .064         .609         .599         .051        -.458
        4.534
         .127         .599         .491         .009        -.448
        4.122
         .189         .583         .381        -.016        -.435
        3.567
         .249         .560         .279        -.025        -.418
        2.928
         .306         .530         .189        -.022        -.402
        2.271
         .360         .496         .117        -.011        -.386
        1.657
         .410         .455         .062         .005        -.372
        1.129
         .455         .410         .023         .022        -.359
         .710
         .496         .360        -.002         .035        -.348
         .404
         .530         .306        -.018         .043        -.338
         .200
         .560         .249        -.026         .044        -.329
         .080
         .583         .189        -.031         .038        -.321
         .020
         .599         .127        -.033         .025        -.316
        -.001
         .609         .064        -.033         .008        -.313
         .000
         .613         .000        -.033        -.010        -.313
         .007
         .609        -.064        -.033        -.027        -.316
         .008
         .599        -.127        -.031        -.040        -.322
        -.013
         .583        -.189        -.027        -.046        -.329
        -.073
         .560        -.249        -.018        -.045        -.338
        -.193
         .530        -.306        -.003        -.036        -.349
        -.397
         .496        -.360         .022        -.023        -.360
        -.704
         .455        -.410         .061        -.006        -.373
       -1.124
         .410        -.455         .116         .010        -.386
       -1.653
         .360        -.496         .189         .022        -.403
       -2.269
         .306        -.530         .278         .025        -.419
       -2.927
         .249        -.560         .381         .016        -.435
       -3.568
         .189        -.583         .491        -.009        -.449
       -4.123
         .127        -.599         .599        -.051        -.459
       -4.536
         .064        -.609         .696        -.107        -.459
       -4.775
         .000        -.613         .776        -.175        -.450
       -4.839
        -.064        -.609         .831        -.250        -.425
       -4.750
        -.127        -.599         .859        -.326        -.387
       -4.543
        -.189        -.583         .860        -.398        -.332
       -4.253
        -.249        -.560         .835        -.459        -.263
       -3.909
        -.306        -.530         .788        -.507        -.179
       -3.534
        -.360        -.496         .723        -.536        -.088
       -3.145
        -.410        -.455         .645        -.544         .011
       -2.751
        -.455        -.410         .561        -.531         .109
       -2.361
        -.496        -.360         .476        -.496         .206
       -1.978
        -.530        -.306         .396        -.439         .294
       -1.604
        -.560        -.249         .324        -.363         .370
       -1.237
        -.583        -.189         .267        -.272         .431
        -.878
        -.599        -.127         .227        -.168         .473
        -.525
        -.609        -.064         .206        -.057         .494
        -.175
        -.613         .000         .206         .056         .495
         .000
        -.672         .000         .303         .054         .459
         .065
        -.668         .070         .322         .160         .440
         .197
        -.657         .140         .360         .259         .404
         .335
        -.639         .208         .414         .349         .351
         .482
        -.614         .273         .481         .425         .284
         .642
        -.582         .336         .559         .485         .206
         .819
        -.544         .395         .643         .526         .121
        1.017
        -.499         .450         .728         .548         .033
        1.239
        -.450         .499         .810         .550        -.056
        1.489
        -.395         .544         .884         .533        -.139
        1.769
        -.336         .582         .944         .498        -.217
        2.079
        -.273         .614         .986         .448        -.283
        2.417
        -.208         .639        1.005         .386        -.339
        2.772
        -.140         .657         .998         .315        -.379
        3.127
        -.070         .668         .962         .242        -.408
        3.454
         .000         .672         .898         .169        -.422
        3.710
         .070         .668         .806         .103        -.427
        3.843
         .140         .657         .693         .048        -.423
        3.806
         .208         .639         .567         .008        -.414
        3.577
         .273         .614         .440        -.015        -.401
        3.175
         .336         .582         .321        -.022        -.388
        2.656
         .395         .544         .217        -.016        -.375
        2.096
         .450         .499         .134        -.002        -.363
        1.564
         .499         .450         .072         .014        -.353
        1.110
         .544         .395         .027         .029        -.343
         .756
         .582         .336        -.004         .039        -.335
         .500
         .614         .273        -.024         .041        -.327
         .324
         .639         .208        -.038         .036        -.321
         .202
         .657         .140        -.046         .024        -.316
         .112
         .668         .070        -.050         .008        -.313
         .037
         .672         .000        -.050        -.010        -.313
        -.033
         .668        -.070        -.046        -.026        -.316
        -.108
         .657        -.140        -.038        -.038        -.321
        -.197
         .639        -.208        -.025        -.043        -.328
        -.319
         .614        -.273        -.004        -.041        -.335
        -.495
         .582        -.336         .026        -.031        -.344
        -.751
         .544        -.395         .071        -.016        -.353
       -1.106
         .499        -.450         .134         .001        -.364
       -1.561
         .450        -.499         .217         .015        -.375
       -2.094
         .395        -.544         .320         .021        -.389
       -2.655
         .336        -.582         .439         .014        -.402
       -3.175
         .273        -.614         .567        -.008        -.415
       -3.579
         .208        -.639         .693        -.048        -.424
       -3.809
         .140        -.657         .806        -.103        -.428
       -3.846
         .070        -.668         .898        -.169        -.423
       -3.712
         .000        -.672         .963        -.242        -.409
       -3.456
        -.070        -.668         .998        -.316        -.380
       -3.129
        -.140        -.657        1.005        -.386        -.340
       -2.773
        -.208        -.639         .986        -.448        -.284
       -2.418
        -.273        -.614         .944        -.499        -.218
       -2.081
        -.336        -.582         .884        -.534        -.141
       -1.770
        -.395        -.544         .811        -.551        -.057
       -1.490
        -.450        -.499         .729        -.549         .032
       -1.240
        -.499        -.450         .643        -.527         .120
       -1.018
        -.544        -.395         .560        -.486         .206
        -.820
        -.582        -.336         .482        -.426         .283
        -.643
        -.614        -.273         .414        -.350         .350
        -.483
        -.639        -.208         .360        -.260         .403
        -.336
        -.657        -.140         .322        -.161         .440
        -.198
        -.668        -.070         .303        -.054         .459
        -.066
        -.672         .000         .303         .054         .459
         .000
        -.734         .000         .388         .048         .438
         .020
        -.730         .077         .405         .144         .422
         .061
        -.718         .153         .438         .234         .390
         .106
        -.698         .227         .486         .316         .345
         .157
        -.671         .299         .546         .387         .286
         .217
        -.636         .367         .617         .445         .218
         .288
        -.594         .431         .694         .487         .142
         .376
        -.545         .491         .774         .513         .064
         .484
        -.491         .545         .854         .522        -.017
         .617
        -.431         .594         .928         .515        -.094
         .781
        -.367         .636         .993         .492        -.167
         .983
        -.299         .671        1.045         .455        -.231
        1.227
        -.227         .698        1.080         .406        -.287
        1.517
        -.153         .718        1.093         .348        -.330
        1.852
        -.077         .730        1.080         .283        -.363
        2.222
         .000         .734        1.039         .215        -.383
        2.601
         .077         .730         .967         .149        -.395
        2.944
         .153         .718         .866         .088        -.396
        3.186
         .227         .698         .742         .038        -.392
        3.262
         .299         .671         .603         .003        -.384
        3.135
         .367         .636         .463        -.015        -.374
        2.820
         .431         .594         .334        -.018        -.363
        2.378
         .491         .545         .223        -.010        -.354
        1.891
         .545         .491         .135         .005        -.345
        1.432
         .594         .431         .068         .020        -.337
        1.047
         .636         .367         .019         .030        -.330
         .748
         .671         .299        -.016         .035        -.323
         .524
         .698         .227        -.040         .031        -.318
         .350
         .718         .153        -.056         .021        -.313
         .203
         .730         .077        -.064         .007        -.311
         .067
         .734         .000        -.064        -.009        -.311
        -.066
         .730        -.077        -.056        -.024        -.313
        -.201
         .718        -.153        -.041        -.033        -.318
        -.347
         .698        -.227        -.016        -.036        -.324
        -.521
         .671        -.299         .019        -.032        -.330
        -.744
         .636        -.367         .067        -.021        -.338
       -1.043
         .594        -.431         .134        -.006        -.345
       -1.429
         .545        -.491         .222         .008        -.354
       -1.888
         .491        -.545         .333         .017        -.364
       -2.377
         .431        -.594         .463         .014        -.375
       -2.820
         .367        -.636         .603        -.004        -.384
       -3.137
         .299        -.671         .742        -.039        -.393
       -3.264
         .227        -.698         .866        -.089        -.397
       -3.188
         .153        -.718         .967        -.149        -.396
       -2.945
         .077        -.730        1.039        -.216        -.384
       -2.602
         .000        -.734        1.081        -.283        -.364
       -2.222
        -.077        -.730        1.093        -.348        -.331
       -1.853
        -.153        -.718        1.080        -.407        -.288
       -1.518
        -.227        -.698        1.046        -.456        -.232
       -1.228
        -.299        -.671         .994        -.492        -.168
        -.983
        -.367        -.636         .929        -.515        -.095
        -.782
        -.431        -.594         .854        -.523        -.018
        -.617
        -.491        -.545         .775        -.514         .063
        -.484
        -.545        -.491         .695        -.488         .141
        -.376
        -.594        -.431         .618        -.445         .217
        -.289
        -.636        -.367         .547        -.388         .285
        -.217
        -.671        -.299         .486        -.317         .344
        -.157
        -.698        -.227         .438        -.235         .390
        -.107
        -.718        -.153         .405        -.145         .422
        -.062
        -.730        -.077         .388        -.049         .438
        -.020
        -.734         .000         .388         .048         .438
         .000
        -.798         .000         .459         .043         .402
         .005
        -.794         .083         .473         .127         .388
         .015
        -.781         .166         .502         .207         .361
         .026
        -.759         .247         .544         .281         .321
         .040
        -.729         .325         .597         .345         .269
         .058
        -.691         .399         .660         .398         .210
         .083
        -.646         .469         .728         .438         .144
         .115
        -.593         .534         .801         .465         .075
         .159
        -.534         .593         .874         .478         .003
         .219
        -.469         .646         .944         .477        -.065
         .301
        -.399         .691        1.009         .463        -.132
         .410
        -.325         .729        1.065         .436        -.191
         .555
        -.247         .759        1.108         .400        -.243
         .745
        -.166         .781        1.135         .354        -.286
         .990
        -.083         .794        1.142         .301        -.321
        1.295
         .000         .798        1.125         .243        -.345
        1.658
         .083         .794        1.078         .182        -.362
        2.058
         .166         .781        1.000         .123        -.368
        2.445
         .247         .759         .891         .069        -.370
        2.741
         .325         .729         .756         .025        -.366
        2.866
         .399         .691         .607        -.004        -.360
        2.780
         .469         .646         .458        -.016        -.352
        2.505
         .534         .593         .323        -.015        -.345
        2.109
         .593         .534         .210        -.005        -.338
        1.680
         .646         .469         .119         .008        -.332
        1.285
         .691         .399         .050         .020        -.326
         .956
         .729         .325        -.001         .025        -.320
         .693
         .759         .247        -.038         .024        -.314
         .475
         .781         .166        -.063         .017        -.310
         .280
         .794         .083        -.075         .005        -.308
         .093
         .798         .000        -.075        -.008        -.308
        -.093
         .794        -.083        -.063        -.019        -.310
        -.280
         .781        -.166        -.038        -.027        -.315
        -.474
         .759        -.247        -.001        -.028        -.320
        -.691
         .729        -.325         .050        -.022        -.326
        -.954
         .691        -.399         .119        -.010        -.332
       -1.283
         .646        -.469         .209         .004        -.338
       -1.678
         .593        -.534         .323         .014        -.346
       -2.108
         .534        -.593         .458         .015        -.353
       -2.505
         .469        -.646         .606         .003        -.361
       -2.782
         .399        -.691         .755        -.026        -.367
       -2.868
         .325        -.729         .891        -.069        -.371
       -2.742
         .247        -.759        1.000        -.123        -.369
       -2.446
         .166        -.781        1.079        -.183        -.363
       -2.059
         .083        -.794        1.125        -.243        -.346
       -1.659
         .000        -.798        1.143        -.301        -.323
       -1.295
        -.083        -.794        1.136        -.354        -.288
        -.990
        -.166        -.781        1.109        -.400        -.245
        -.745
        -.247        -.759        1.065        -.437        -.192
        -.555
        -.325        -.729        1.010        -.463        -.133
        -.410
        -.399        -.691         .945        -.477        -.067
        -.301
        -.469        -.646         .874        -.478         .002
        -.220
        -.534        -.593         .801        -.465         .074
        -.160
        -.593        -.534         .729        -.439         .143
        -.115
        -.646        -.469         .660        -.398         .210
        -.083
        -.691        -.399         .598        -.345         .269
        -.059
        -.729        -.325         .545        -.281         .320
        -.040
        -.759        -.247         .503        -.208         .360
        -.026
        -.781        -.166         .474        -.128         .388
        -.015